                         Program Version 5.0.4 -  RELEASE  -
|  1> # avogadro generated ORCA file
|  2> # C18H12N3O6Cr | Geometry Optimization | B3LYP/6-31G(d)
|  3> #
|  4> ! B3LYP D3BJ def2-TZVPP TightSCF TightOpt Opt Freq
|  5>
|  6> %maxcore 1024
|  7>
|  8> %pal
|  9>    nprocs 16
| 10> end
| 11>
| 12> * xyz 0 4
| 13>    Cr     5.041501    0.026138   -0.216555
| 14>    O      4.271106   -0.210090   -1.991355
| 15>    O      5.560959   -0.133177    1.640716
| 16>    O      6.553482    1.048538   -0.807722
| 17>    O      2.580750   -1.078735   -3.195130
| 18>    O      6.672283   -1.389751    3.135699
| 19>    O      7.290073    3.117394   -1.285564
| 20>    N      3.266502   -0.997434    0.254350
| 21>    N      6.166756   -1.692437   -0.330999
| 22>    N      4.229879    1.927180   -0.005185
| 23>    C      2.534924   -1.284331   -0.833650
| 24>    C      6.718707   -2.020937    0.846491
| 25>    C      5.103516    2.862158   -0.410934
| 26>    C      3.142458   -0.834417   -2.147147
| 27>    C      6.317613   -1.132737    2.005034
| 28>    C      6.446317    2.343440   -0.888178
| 29>    C      2.824911   -1.354808    1.465951
| 30>    C      6.458785   -2.392112   -1.429965
| 31>    C      3.026031    2.295750    0.440230
| 32>    C      1.322133   -1.947575   -0.748308
| 33>    C      7.584841   -3.092975    0.971379
| 34>    C      4.792944    4.211731   -0.387243
| 35>    C      1.619782   -2.019578    1.627810
| 36>    C      7.323147   -3.474835   -1.381189
| 37>    C      2.645701    3.626000    0.495875
| 38>    C      0.856704   -2.321195    0.504475
| 39>    C      7.892355   -3.831079   -0.163698
| 40>    C      3.544117    4.599800    0.073217
| 41>    H      3.459914   -1.090436    2.299591
| 42>    H      5.992288   -2.058495   -2.346122
| 43>    H      2.361998    1.504337    0.756302
| 44>    H      0.782977   -2.151939   -1.661518
| 45>    H      7.996435   -3.314622    1.944799
| 46>    H      5.538694    4.913957   -0.729033
| 47>    H      1.291558   -2.294835    2.619515
| 48>    H      7.545663   -4.021427   -2.285878
| 49>    H      1.664020    3.888225    0.862363
| 50>    H     -0.086426   -2.840642    0.606953
| 51>    H      8.571410   -4.670695   -0.103317
| 52>    H      3.271439    5.645903    0.104444
| 53> *
| 54>
| 55>
| 56>
| 57>                          ****END OF INPUT****
 Total Charge           Charge          ....    0
 Multiplicity           Mult            ....    4
 Number of Electrons    NEL             ....  213
Dispersion correction           -0.105876604
FINAL SINGLE POINT ENERGY     -2353.311448239388
Dispersion correction            ... done
Dispersion correction           -0.105820093
FINAL SINGLE POINT ENERGY     -2353.311612664811
Dispersion correction            ... done
Dispersion correction           -0.105656818
FINAL SINGLE POINT ENERGY     -2353.311830026723
Dispersion correction            ... done
FINAL SINGLE POINT ENERGY     -2353.311841635239
FINAL SINGLE POINT ENERGY     -2353.311865159201
FINAL SINGLE POINT ENERGY     -2353.311877811583
FINAL SINGLE POINT ENERGY     -2353.311885374930
FINAL SINGLE POINT ENERGY     -2353.311891071258
FINAL SINGLE POINT ENERGY     -2353.311895167823
FINAL SINGLE POINT ENERGY     -2353.311898048902
FINAL SINGLE POINT ENERGY     -2353.311900267690
Dispersion correction           -0.105719557
FINAL SINGLE POINT ENERGY     -2353.311901424714
Dispersion correction            ... done
Dispersion correction           -0.105706285
FINAL SINGLE POINT ENERGY     -2353.311902089385
Dispersion correction            ... done
                    ***********************HURRAY********************

CARTESIAN COORDINATES (ANGSTROEM)
---------------------------------
  Cr     5.026174    0.021018   -0.242431
  O      4.263824   -0.228517   -2.037037
  O      5.577664   -0.100795    1.631225
  O      6.540151    1.052333   -0.849407
  O      2.575588   -1.136318   -3.214014
  O      6.700255   -1.351487    3.123247
  O      7.288725    3.126149   -1.286342
  N      3.252231   -0.993456    0.238193
  N      6.156568   -1.701511   -0.336804
  N      4.225521    1.928745   -0.016980
  C      2.531815   -1.298009   -0.851893
  C      6.721657   -2.002294    0.842067
  C      5.106109    2.864372   -0.406085
  C      3.141580   -0.863891   -2.174232
  C      6.331594   -1.096455    1.995116
  C      6.443927    2.346151   -0.901020
  C      2.810704   -1.337685    1.453241
  C      6.440260   -2.418825   -1.426706
  C      3.025756    2.297296    0.440071
  C      1.323344   -1.969508   -0.761999
  C      7.594939   -3.067896    0.975653
  C      4.805961    4.215499   -0.351302
  C      1.609916   -2.008493    1.618413
  C      7.311115   -3.495090   -1.367592
  C      2.656580    3.628665    0.525395
  C      0.855625   -2.329170    0.493967
  C      7.894501   -3.824512   -0.148965
  C      3.562211    4.603958    0.121575
  H      3.443578   -1.058973    2.284255
  H      5.961986   -2.103009   -2.343219
  H      2.355953    1.505295    0.742068
  H      0.789776   -2.190560   -1.674503
  H      8.017556   -3.269314    1.948711
  H      5.557332    4.917880   -0.680222
  H      1.278165   -2.274065    2.611524
  H      7.527911   -4.057159   -2.264054
  H      1.678236    3.890653    0.900758
  H     -0.084307   -2.854106    0.598684
  H      8.579091   -4.659051   -0.080001
  H      3.298672    5.651391    0.177146

 Multiplicity           Mult            ....    4
 Number of Electrons    NEL             ....  213
 Basis Dimension        Dim             .... 1069

ORBITAL ENERGIES
----------------
                 SPIN UP ORBITALS
  NO   OCC          E(Eh)            E(eV)
   0   1.0000    -215.764386     -5871.2474
   1   1.0000     -24.773301      -674.1158
   2   1.0000     -21.061097      -573.1016
   3   1.0000     -21.060328      -573.0807
   4   1.0000     -21.059799      -573.0663
   5   1.0000     -19.117112      -520.2031
   6   1.0000     -19.115802      -520.1674
   7   1.0000     -19.109647      -519.9999
   8   1.0000     -19.094246      -519.5808
   9   1.0000     -19.091656      -519.5104
  10   1.0000     -19.083825      -519.2973
  11   1.0000     -14.383099      -391.3840
  12   1.0000     -14.377586      -391.2340
  13   1.0000     -14.375961      -391.1898
  14   1.0000     -10.288098      -279.9534
  15   1.0000     -10.285413      -279.8803
  16   1.0000     -10.278141      -279.6824
  17   1.0000     -10.253078      -279.0004
  18   1.0000     -10.252218      -278.9770
  19   1.0000     -10.249964      -278.9157
  20   1.0000     -10.244699      -278.7724
  21   1.0000     -10.244665      -278.7715
  22   1.0000     -10.243278      -278.7338
  23   1.0000     -10.233611      -278.4707
  24   1.0000     -10.224773      -278.2302
  25   1.0000     -10.224190      -278.2143
  26   1.0000     -10.224042      -278.2103
  27   1.0000     -10.219234      -278.0795
  28   1.0000     -10.217345      -278.0281
  29   1.0000     -10.215027      -277.9650
  30   1.0000     -10.210455      -277.8406
  31   1.0000     -10.208947      -277.7996
  32   1.0000      -2.975161       -80.9582
  33   1.0000      -1.925182       -52.3869
  34   1.0000      -1.923578       -52.3432
  35   1.0000      -1.922381       -52.3106
  36   1.0000      -1.067785       -29.0559
  37   1.0000      -1.064243       -28.9595
  38   1.0000      -1.057418       -28.7738
  39   1.0000      -1.003297       -27.3011
  40   1.0000      -0.995736       -27.0954
  41   1.0000      -0.994475       -27.0610
  42   1.0000      -0.980353       -26.6768
  43   1.0000      -0.976924       -26.5835
  44   1.0000      -0.971190       -26.4274
  45   1.0000      -0.850095       -23.1323
  46   1.0000      -0.841868       -22.9084
  47   1.0000      -0.840680       -22.8761
  48   1.0000      -0.813943       -22.1485
  49   1.0000      -0.806324       -21.9412
  50   1.0000      -0.805866       -21.9287
  51   1.0000      -0.689003       -18.7487
  52   1.0000      -0.681628       -18.5480
  53   1.0000      -0.681137       -18.5347
  54   1.0000      -0.676037       -18.3959
  55   1.0000      -0.669518       -18.2185
  56   1.0000      -0.667361       -18.1598
  57   1.0000      -0.598377       -16.2827
  58   1.0000      -0.591777       -16.1031
  59   1.0000      -0.590160       -16.0591
  60   1.0000      -0.547976       -14.9112
  61   1.0000      -0.538679       -14.6582
  62   1.0000      -0.534215       -14.5367
  63   1.0000      -0.532277       -14.4840
  64   1.0000      -0.526916       -14.3381
  65   1.0000      -0.525461       -14.2985
  66   1.0000      -0.505233       -13.7481
  67   1.0000      -0.497199       -13.5295
  68   1.0000      -0.492747       -13.4083
  69   1.0000      -0.484927       -13.1955
  70   1.0000      -0.482045       -13.1171
  71   1.0000      -0.477333       -12.9889
  72   1.0000      -0.472866       -12.8673
  73   1.0000      -0.468073       -12.7369
  74   1.0000      -0.461186       -12.5495
  75   1.0000      -0.458793       -12.4844
  76   1.0000      -0.454709       -12.3733
  77   1.0000      -0.449669       -12.2361
  78   1.0000      -0.436053       -11.8656
  79   1.0000      -0.431595       -11.7443
  80   1.0000      -0.426734       -11.6120
  81   1.0000      -0.422466       -11.4959
  82   1.0000      -0.420278       -11.4363
  83   1.0000      -0.413258       -11.2453
  84   1.0000      -0.409511       -11.1434
  85   1.0000      -0.408884       -11.1263
  86   1.0000      -0.406666       -11.0659
  87   1.0000      -0.371500       -10.1090
  88   1.0000      -0.365837        -9.9549
  89   1.0000      -0.351465        -9.5638
  90   1.0000      -0.344707        -9.3799
  91   1.0000      -0.342158        -9.3106
  92   1.0000      -0.339671        -9.2429
  93   1.0000      -0.331356        -9.0166
  94   1.0000      -0.323025        -8.7900
  95   1.0000      -0.315290        -8.5795
  96   1.0000      -0.311734        -8.4827
  97   1.0000      -0.305332        -8.3085
  98   1.0000      -0.299585        -8.1521
  99   1.0000      -0.298010        -8.1093
 100   1.0000      -0.294741        -8.0203
 101   1.0000      -0.282957        -7.6996
 102   1.0000      -0.273239        -7.4352
 103   1.0000      -0.271459        -7.3868
 104   1.0000      -0.265387        -7.2215
 105   1.0000      -0.257863        -7.0168
 106   1.0000      -0.256374        -6.9763
 107   1.0000      -0.243468        -6.6251
 108   0.0000      -0.088753        -2.4151
 109   0.0000      -0.079956        -2.1757
 110   0.0000      -0.078586        -2.1384
 111   0.0000      -0.070284        -1.9125
 112   0.0000      -0.058272        -1.5857

                 SPIN DOWN ORBITALS
  NO   OCC          E(Eh)            E(eV)
   0   1.0000    -215.763627     -5871.2268
   1   1.0000     -24.726761      -672.8494
   2   1.0000     -21.022421      -572.0492
   3   1.0000     -21.021475      -572.0234
   4   1.0000     -21.019925      -571.9812
   5   1.0000     -19.116690      -520.1916
   6   1.0000     -19.115516      -520.1596
   7   1.0000     -19.109432      -519.9941
   8   1.0000     -19.093782      -519.5682
   9   1.0000     -19.091289      -519.5004
  10   1.0000     -19.083429      -519.2865
  11   1.0000     -14.384049      -391.4099
  12   1.0000     -14.378623      -391.2622
  13   1.0000     -14.377058      -391.2196
  14   1.0000     -10.288044      -279.9519
  15   1.0000     -10.285301      -279.8773
  16   1.0000     -10.278017      -279.6791
  17   1.0000     -10.252769      -278.9920
  18   1.0000     -10.251892      -278.9682
  19   1.0000     -10.249678      -278.9079
  20   1.0000     -10.244379      -278.7637
  21   1.0000     -10.244345      -278.7628
  22   1.0000     -10.242972      -278.7254
  23   1.0000     -10.233348      -278.4635
  24   1.0000     -10.224931      -278.2345
  25   1.0000     -10.223969      -278.2083
  26   1.0000     -10.223785      -278.2033
  27   1.0000     -10.219397      -278.0839
  28   1.0000     -10.217475      -278.0316
  29   1.0000     -10.215183      -277.9693
  30   1.0000     -10.210619      -277.8451
  31   1.0000     -10.209097      -277.8037
  32   1.0000      -2.846096       -77.4462
  33   1.0000      -1.790134       -48.7120
  34   1.0000      -1.788439       -48.6659
  35   1.0000      -1.784531       -48.5596
  36   1.0000      -1.066895       -29.0317
  37   1.0000      -1.063398       -28.9365
  38   1.0000      -1.056639       -28.7526
  39   1.0000      -1.003592       -27.3091
  40   1.0000      -0.996149       -27.1066
  41   1.0000      -0.994894       -27.0724
  42   1.0000      -0.979309       -26.6484
  43   1.0000      -0.976075       -26.5603
  44   1.0000      -0.970340       -26.4043
  45   1.0000      -0.850134       -23.1333
  46   1.0000      -0.841955       -22.9108
  47   1.0000      -0.840758       -22.8782
  48   1.0000      -0.813625       -22.1399
  49   1.0000      -0.806026       -21.9331
  50   1.0000      -0.805551       -21.9202
  51   1.0000      -0.688878       -18.7453
  52   1.0000      -0.681466       -18.5436
  53   1.0000      -0.680991       -18.5307
  54   1.0000      -0.675819       -18.3900
  55   1.0000      -0.669331       -18.2134
  56   1.0000      -0.667190       -18.1552
  57   1.0000      -0.598003       -16.2725
  58   1.0000      -0.591375       -16.0921
  59   1.0000      -0.589735       -16.0475
  60   1.0000      -0.546873       -14.8812
  61   1.0000      -0.538336       -14.6489
  62   1.0000      -0.533851       -14.5268
  63   1.0000      -0.531981       -14.4759
  64   1.0000      -0.526349       -14.3227
  65   1.0000      -0.524830       -14.2813
  66   1.0000      -0.504291       -13.7225
  67   1.0000      -0.495994       -13.4967
  68   1.0000      -0.492509       -13.4018
  69   1.0000      -0.484575       -13.1860
  70   1.0000      -0.481111       -13.0917
  71   1.0000      -0.477002       -12.9799
  72   1.0000      -0.471751       -12.8370
  73   1.0000      -0.466977       -12.7071
  74   1.0000      -0.459301       -12.4982
  75   1.0000      -0.457378       -12.4459
  76   1.0000      -0.453963       -12.3530
  77   1.0000      -0.449423       -12.2294
  78   1.0000      -0.434785       -11.8311
  79   1.0000      -0.430688       -11.7196
  80   1.0000      -0.425488       -11.5781
  81   1.0000      -0.419808       -11.4236
  82   1.0000      -0.418190       -11.3795
  83   1.0000      -0.411731       -11.2038
  84   1.0000      -0.408425       -11.1138
  85   1.0000      -0.407427       -11.0866
  86   1.0000      -0.406516       -11.0619
  87   1.0000      -0.367313        -9.9951
  88   1.0000      -0.362004        -9.8506
  89   1.0000      -0.347238        -9.4488
  90   1.0000      -0.339383        -9.2351
  91   1.0000      -0.334094        -9.0912
  92   1.0000      -0.330378        -8.9900
  93   1.0000      -0.319337        -8.6896
  94   1.0000      -0.308833        -8.4038
  95   1.0000      -0.306011        -8.3270
  96   1.0000      -0.302047        -8.2191
  97   1.0000      -0.300124        -8.1668
  98   1.0000      -0.298275        -8.1165
  99   1.0000      -0.291611        -7.9351
 100   1.0000      -0.290378        -7.9016
 101   1.0000      -0.278324        -7.5736
 102   1.0000      -0.267617        -7.2822
 103   1.0000      -0.264736        -7.2038
 104   1.0000      -0.258391        -7.0312
 105   0.0000      -0.100773        -2.7422
 106   0.0000      -0.086462        -2.3527
 107   0.0000      -0.082229        -2.2376
 108   0.0000      -0.070392        -1.9155
 109   0.0000      -0.060229        -1.6389

MULLIKEN ATOMIC CHARGES AND SPIN POPULATIONS
--------------------------------------------
   0 Cr:    0.254693    3.062425
   1 O :   -0.382023   -0.005312
   2 O :   -0.397364   -0.011128
   3 O :   -0.337468   -0.014043
   4 O :   -0.330744    0.017466
   5 O :   -0.331904    0.013998
   6 O :   -0.335588    0.015236
   7 N :   -0.092820   -0.054531
   8 N :   -0.031572   -0.059854
   9 N :    0.000370   -0.060020
  10 C :    0.049027    0.018916
  11 C :    0.057376    0.019496
  12 C :    0.041854    0.018579
  13 C :    0.352362   -0.002150
  14 C :    0.344339   -0.000206
  15 C :    0.355667    0.002711
  16 C :   -0.047344    0.015411
  17 C :   -0.026340    0.016948
  18 C :   -0.030804    0.017376
  19 C :   -0.141847   -0.010341
  20 C :   -0.145147   -0.010397
  21 C :   -0.126780   -0.009732
  22 C :   -0.108114   -0.010321
  23 C :   -0.119521   -0.010467
  24 C :   -0.122167   -0.008633
  25 C :   -0.086464    0.018186
  26 C :   -0.080561    0.017934
  27 C :   -0.085289    0.015304
  28 H :    0.178975   -0.000344
  29 H :    0.164632   -0.000474
  30 H :    0.129834   -0.000772
  31 H :    0.168878    0.000152
  32 H :    0.166320    0.000152
  33 H :    0.165661    0.000270
  34 H :    0.157425    0.000311
  35 H :    0.154016    0.000288
  36 H :    0.147898    0.000145
  37 H :    0.159323   -0.000929
  38 H :    0.155705   -0.000886
  39 H :    0.155502   -0.000764
Sum of atomic charges         :   -0.0000000

LOEWDIN ATOMIC CHARGES AND SPIN POPULATIONS
-------------------------------------------
   0 Cr:   -0.256250    2.881835
   1 O :    0.132099    0.016744
   2 O :    0.123823    0.013252
   3 O :    0.144864    0.012023
   4 O :    0.091773    0.014781
   5 O :    0.091902    0.011849
   6 O :    0.098633    0.012825
   7 N :    0.276173   -0.015417
   8 N :    0.288087   -0.018376
   9 N :    0.288526   -0.016594
  10 C :   -0.108346    0.010490
  11 C :   -0.100232    0.009926
  12 C :   -0.089871    0.009476
  13 C :   -0.520073    0.006040
  14 C :   -0.512284    0.006327
  15 C :   -0.499213    0.006495
  16 C :   -0.028002    0.009543
  17 C :   -0.011183    0.009511
  18 C :   -0.030284    0.008320
  19 C :    0.036726   -0.003545
  20 C :    0.038192   -0.003641
  21 C :    0.043107   -0.003337
  22 C :    0.004498   -0.003633
  23 C :    0.009467   -0.003660
  24 C :    0.005043   -0.003127
  25 C :    0.031922    0.010935
  26 C :    0.033233    0.010761
  27 C :    0.033718    0.009148
  28 H :    0.038269    0.000567
  29 H :    0.041328    0.000400
  30 H :    0.029468    0.000326
  31 H :    0.036151   -0.000433
  32 H :    0.035589   -0.000458
  33 H :    0.037008   -0.000382
  34 H :    0.027422   -0.000409
  35 H :    0.027150   -0.000419
  36 H :    0.025147   -0.000389
  37 H :    0.029056    0.000792
  38 H :    0.028555    0.000780
  39 H :    0.028810    0.000675

  Mayer bond orders larger than 0.100000
B(  0-Cr,  1-O ) :   0.7059 B(  0-Cr,  2-O ) :   0.7193 B(  0-Cr,  3-O ) :   0.7754
B(  0-Cr,  7-N ) :   0.5512 B(  0-Cr,  8-N ) :   0.5835 B(  0-Cr,  9-N ) :   0.5582
B(  1-O , 13-C ) :   1.3441 B(  2-O , 14-C ) :   1.3440 B(  3-O , 15-C ) :   1.3627
B(  4-O , 13-C ) :   2.0315 B(  5-O , 14-C ) :   2.0369 B(  6-O , 15-C ) :   2.0098
B(  7-N , 10-C ) :   1.2230 B(  7-N , 16-C ) :   1.3317 B(  8-N , 11-C ) :   1.2555
B(  8-N , 17-C ) :   1.3602 B(  9-N , 12-C ) :   1.2896 B(  9-N , 18-C ) :   1.3641
B( 10-C , 13-C ) :   0.9025 B( 10-C , 19-C ) :   1.4207 B( 11-C , 14-C ) :   0.9034
B( 11-C , 20-C ) :   1.4252 B( 12-C , 15-C ) :   0.9229 B( 12-C , 21-C ) :   1.4121
B( 16-C , 22-C ) :   1.4251 B( 16-C , 28-H ) :   0.9630 B( 17-C , 23-C ) :   1.4221
B( 17-C , 29-H ) :   0.9701 B( 18-C , 24-C ) :   1.4360 B( 18-C , 30-H ) :   0.9746
B( 19-C , 25-C ) :   1.4038 B( 19-C , 31-H ) :   0.9483 B( 20-C , 26-C ) :   1.4045
B( 20-C , 32-H ) :   0.9465 B( 21-C , 27-C ) :   1.4129 B( 21-C , 33-H ) :   0.9436
B( 22-C , 25-C ) :   1.3884 B( 22-C , 34-H ) :   0.9635 B( 23-C , 26-C ) :   1.3925
B( 23-C , 35-H ) :   0.9616 B( 24-C , 27-C ) :   1.3947 B( 24-C , 36-H ) :   0.9603
B( 25-C , 37-H ) :   0.9580 B( 26-C , 38-H ) :   0.9587 B( 27-C , 39-H ) :   0.9575

Dispersion correction           -0.105697962
FINAL SINGLE POINT ENERGY     -2353.311902537062

DIPOLE MOMENT
-------------
                                X             Y             Z
Electronic contribution:      6.38101       3.55680      -2.74902
Nuclear contribution   :     -9.10947      -5.00276       3.91970
                        -----------------------------------------
Total Dipole Moment    :     -2.72845      -1.44596       1.17068
                        -----------------------------------------
Magnitude (a.u.)       :      3.30238
Magnitude (Debye)      :      8.39399

Dispersion correction in the Hessian             ... done   (      0.7 sec)

VIBRATIONAL FREQUENCIES
-----------------------

Scaling factor for frequencies =  1.000000000  (already applied!)

   0:         0.00 cm**-1
   1:         0.00 cm**-1
   2:         0.00 cm**-1
   3:         0.00 cm**-1
   4:         0.00 cm**-1
   5:         0.00 cm**-1
   6:        28.52 cm**-1
   7:        30.20 cm**-1
   8:        37.20 cm**-1
   9:        41.61 cm**-1
  10:        42.14 cm**-1
  11:        52.92 cm**-1
  12:       111.84 cm**-1
  13:       113.86 cm**-1
  14:       118.22 cm**-1
  15:       159.51 cm**-1
  16:       164.16 cm**-1
  17:       171.52 cm**-1
  18:       183.97 cm**-1
  19:       193.35 cm**-1
  20:       203.58 cm**-1
  21:       205.05 cm**-1
  22:       224.63 cm**-1
  23:       240.41 cm**-1
  24:       269.29 cm**-1
  25:       293.75 cm**-1
  26:       298.77 cm**-1
  27:       363.54 cm**-1
  28:       382.68 cm**-1
  29:       388.09 cm**-1
  30:       430.04 cm**-1
  31:       433.39 cm**-1
  32:       436.27 cm**-1
  33:       453.98 cm**-1
  34:       459.73 cm**-1
  35:       462.47 cm**-1
  36:       467.49 cm**-1
  37:       477.11 cm**-1
  38:       481.72 cm**-1
  39:       543.14 cm**-1
  40:       544.38 cm**-1
  41:       546.90 cm**-1
  42:       671.07 cm**-1
  43:       674.46 cm**-1
  44:       678.16 cm**-1
  45:       701.84 cm**-1
  46:       705.98 cm**-1
  47:       712.32 cm**-1
  48:       722.67 cm**-1
  49:       729.35 cm**-1
  50:       731.40 cm**-1
  51:       780.27 cm**-1
  52:       784.09 cm**-1
  53:       787.58 cm**-1
  54:       838.95 cm**-1
  55:       843.99 cm**-1
  56:       847.89 cm**-1
  57:       860.03 cm**-1
  58:       863.23 cm**-1
  59:       867.24 cm**-1
  60:       932.11 cm**-1
  61:       940.56 cm**-1
  62:       945.72 cm**-1
  63:       994.87 cm**-1
  64:      1014.52 cm**-1
  65:      1023.17 cm**-1
  66:      1038.11 cm**-1
  67:      1040.43 cm**-1
  68:      1043.72 cm**-1
  69:      1050.15 cm**-1
  70:      1053.05 cm**-1
  71:      1054.32 cm**-1
  72:      1072.51 cm**-1
  73:      1075.47 cm**-1
  74:      1077.18 cm**-1
  75:      1120.20 cm**-1
  76:      1122.05 cm**-1
  77:      1123.62 cm**-1
  78:      1179.03 cm**-1
  79:      1179.65 cm**-1
  80:      1179.83 cm**-1
  81:      1186.31 cm**-1
  82:      1188.02 cm**-1
  83:      1190.08 cm**-1
  84:      1288.83 cm**-1
  85:      1289.69 cm**-1
  86:      1291.52 cm**-1
  87:      1310.98 cm**-1
  88:      1317.49 cm**-1
  89:      1325.50 cm**-1
  90:      1337.88 cm**-1
  91:      1340.59 cm**-1
  92:      1344.00 cm**-1
  93:      1479.23 cm**-1
  94:      1481.95 cm**-1
  95:      1482.40 cm**-1
  96:      1507.07 cm**-1
  97:      1509.97 cm**-1
  98:      1511.31 cm**-1
  99:      1609.44 cm**-1
 100:      1610.87 cm**-1
 101:      1612.16 cm**-1
 102:      1645.67 cm**-1
 103:      1648.58 cm**-1
 104:      1651.23 cm**-1
 105:      1742.21 cm**-1
 106:      1744.80 cm**-1
 107:      1760.43 cm**-1
 108:      3185.57 cm**-1
 109:      3186.22 cm**-1
 110:      3186.78 cm**-1
 111:      3198.19 cm**-1
 112:      3198.86 cm**-1
 113:      3200.21 cm**-1
 114:      3211.45 cm**-1
 115:      3212.90 cm**-1
 116:      3213.25 cm**-1
 117:      3218.19 cm**-1
 118:      3218.86 cm**-1
 119:      3219.32 cm**-1

IR SPECTRUM
-----------

 Mode   freq       eps      Int      T**2         TX        TY        TZ
       cm**-1   L/(mol*cm) km/mol    a.u.
----------------------------------------------------------------------------
  6:     28.52   0.000202    1.02  0.002206  (-0.000882  0.032514 -0.033878)
  7:     30.20   0.000106    0.53  0.001092  ( 0.007396 -0.021446 -0.024023)
  8:     37.20   0.001026    5.19  0.008608  ( 0.050354  0.023905  0.074172)
  9:     41.61   0.001445    7.30  0.010836  (-0.047712 -0.086666  0.032390)
 10:     42.14   0.000305    1.54  0.002261  (-0.030059  0.035593  0.009499)
 11:     52.92   0.001067    5.39  0.006294  ( 0.068930 -0.034790  0.018241)
 12:    111.84   0.000060    0.30  0.000168  ( 0.005275 -0.002720 -0.011521)
 13:    113.86   0.000147    0.74  0.000404  (-0.015453  0.008861 -0.009306)
 14:    118.22   0.000176    0.89  0.000465  (-0.001817 -0.021159 -0.003697)
 15:    159.51   0.000051    0.26  0.000099  (-0.009165 -0.003904  0.000046)
 16:    164.16   0.000243    1.23  0.000463  (-0.013861  0.002797 -0.016215)
 17:    171.52   0.000053    0.27  0.000096  ( 0.005427  0.007959 -0.001861)
 18:    183.97   0.000352    1.78  0.000598  ( 0.022811 -0.003907  0.007874)
 19:    193.35   0.000162    0.82  0.000261  (-0.004841 -0.014675  0.004728)
 20:    203.58   0.000084    0.43  0.000129  ( 0.006403 -0.000463  0.009381)
 21:    205.05   0.000134    0.67  0.000203  ( 0.000127  0.013006  0.005836)
 22:    224.63   0.000115    0.58  0.000160  (-0.009552 -0.007364 -0.003767)
 23:    240.41   0.000075    0.38  0.000097  ( 0.008110 -0.005622 -0.000031)
 24:    269.29   0.004467   22.57  0.005176  (-0.053127  0.047012  0.011978)
 25:    293.75   0.001363    6.89  0.001448  (-0.010937 -0.036403  0.001846)
 26:    298.77   0.002077   10.49  0.002169  ( 0.007777  0.045692 -0.004561)
 27:    363.54   0.001921    9.71  0.001649  ( 0.022501 -0.028922 -0.017489)
 28:    382.68   0.008270   41.79  0.006744  ( 0.003342 -0.081321  0.010941)
 29:    388.09   0.005621   28.41  0.004520  ( 0.063167  0.002141  0.022916)
 30:    430.04   0.000018    0.09  0.000013  ( 0.002665 -0.001399  0.002038)
 31:    433.39   0.000160    0.81  0.000115  ( 0.009199 -0.002571 -0.004862)
 32:    436.27   0.000535    2.70  0.000382  (-0.009195  0.017174  0.001705)
 33:    453.98   0.002241   11.32  0.001540  (-0.016947 -0.035399  0.000146)
 34:    459.73   0.004248   21.47  0.002884  ( 0.033531 -0.009250  0.040914)
 35:    462.47   0.000557    2.81  0.000376  ( 0.006745 -0.017643  0.004347)
 36:    467.49   0.000633    3.20  0.000422  ( 0.010704  0.000765 -0.017531)
 37:    477.11   0.014540   73.48  0.009510  (-0.049592  0.042446 -0.072450)
 38:    481.72   0.017065   86.24  0.011055  ( 0.072848  0.074604  0.013500)
 39:    543.14   0.000015    0.08  0.000009  ( 0.000883 -0.002774  0.000314)
 40:    544.38   0.000227    1.15  0.000130  ( 0.002690  0.011064 -0.000596)
 41:    546.90   0.000111    0.56  0.000063  ( 0.000957  0.001422  0.007757)
 42:    671.07   0.002178   11.01  0.001013  (-0.027096 -0.015651  0.005790)
 43:    674.46   0.000587    2.97  0.000272  ( 0.001500  0.016363  0.001245)
 44:    678.16   0.004637   23.44  0.002134  ( 0.022189 -0.040517  0.000028)
 45:    701.84   0.005203   26.29  0.002314  (-0.014571 -0.001589 -0.045811)
 46:    705.98   0.005324   26.91  0.002353  ( 0.048486 -0.001594 -0.000167)
 47:    712.32   0.007214   36.46  0.003161  ( 0.004727  0.055945 -0.002908)
 48:    722.67   0.001367    6.91  0.000590  (-0.001941  0.023938 -0.003674)
 49:    729.35   0.003657   18.48  0.001565  (-0.035874 -0.008367 -0.014419)
 50:    731.40   0.005849   29.56  0.002496  ( 0.020286 -0.002863 -0.045563)
 51:    780.27   0.005687   28.74  0.002274  (-0.015634 -0.002041 -0.045008)
 52:    784.09   0.005638   28.49  0.002244  ( 0.044468  0.011993 -0.011072)
 53:    787.58   0.006260   31.63  0.002480  (-0.009312  0.048912  0.001083)
 54:    838.95   0.000305    1.54  0.000113  ( 0.004880 -0.001150  0.009388)
 55:    843.99   0.000657    3.32  0.000243  (-0.005958 -0.014306  0.001659)
 56:    847.89   0.000471    2.38  0.000173  (-0.008080  0.009294  0.004642)
 57:    860.03   0.001480    7.48  0.000537  (-0.017837  0.002940 -0.014501)
 58:    863.23   0.017297   87.41  0.006253  (-0.010632 -0.006939 -0.078051)
 59:    867.24   0.011968   60.48  0.004307  ( 0.056104  0.021101 -0.026716)
 60:    932.11   0.000281    1.42  0.000094  ( 0.003495  0.000082  0.009056)
 61:    940.56   0.000067    0.34  0.000022  ( 0.003870  0.002255 -0.001486)
 62:    945.72   0.000055    0.28  0.000018  ( 0.001962 -0.003799  0.000171)
 63:    994.87   0.000007    0.04  0.000002  (-0.000384 -0.000073 -0.001460)
 64:   1014.52   0.000089    0.45  0.000027  (-0.003876 -0.002768  0.002159)
 65:   1023.17   0.000114    0.57  0.000035  ( 0.002720 -0.004902 -0.001794)
 66:   1038.11   0.000042    0.21  0.000013  ( 0.000943  0.000576  0.003360)
 67:   1040.43   0.000026    0.13  0.000008  ( 0.002780 -0.000192 -0.000090)
 68:   1043.72   0.000011    0.05  0.000003  ( 0.000102 -0.001742  0.000425)
 69:   1050.15   0.001841    9.30  0.000547  (-0.017436 -0.015358  0.002668)
 70:   1053.05   0.001864    9.42  0.000552  ( 0.007209 -0.022365 -0.000349)
 71:   1054.32   0.000301    1.52  0.000089  (-0.006595  0.006744  0.000441)
 72:   1072.51   0.007424   37.52  0.002160  ( 0.045226  0.010349 -0.002759)
 73:   1075.47   0.005793   29.28  0.001681  ( 0.023258 -0.033673  0.002468)
 74:   1077.18   0.005969   30.16  0.001729  (-0.012017  0.039709  0.002818)
 75:   1120.20   0.001445    7.30  0.000403  (-0.010591 -0.016337  0.004853)
 76:   1122.05   0.002219   11.22  0.000617  (-0.011860  0.021702  0.002366)
 77:   1123.62   0.000691    3.49  0.000192  ( 0.003520 -0.013395 -0.000236)
 78:   1179.03   0.001122    5.67  0.000297  (-0.003112  0.013717 -0.009956)
 79:   1179.65   0.000473    2.39  0.000125  (-0.009337  0.002091  0.005795)
 80:   1179.83   0.000839    4.24  0.000222  (-0.001119 -0.006713 -0.013249)
 81:   1186.31   0.012442   62.88  0.003273  (-0.035566  0.039600 -0.020972)
 82:   1188.02   0.014537   73.46  0.003818  ( 0.035025  0.050275  0.008003)
 83:   1190.08   0.005717   28.89  0.001499  ( 0.018944 -0.031486  0.012205)
 84:   1288.83   0.017167   86.75  0.004157  ( 0.052049  0.034333 -0.016390)
 85:   1289.69   0.031383  158.60  0.007594  ( 0.055647 -0.066342 -0.009791)
 86:   1291.52   0.013730   69.39  0.003318  (-0.030290  0.048203  0.008749)
 87:   1310.98   0.032523  164.36  0.007742  (-0.087490 -0.003728  0.008563)
 88:   1317.49   0.057333  289.74  0.013580  ( 0.029171 -0.112818 -0.001059)
 89:   1325.50   0.002326   11.75  0.000548  (-0.012343 -0.018587  0.007051)
 90:   1337.88   0.032742  165.46  0.007637  (-0.020873 -0.084826  0.002450)
 91:   1340.59   0.032553  164.51  0.007578  (-0.060851  0.062107 -0.004203)
 92:   1344.00   0.004254   21.50  0.000988  ( 0.026071  0.013417 -0.011317)
 93:   1479.23   0.001606    8.11  0.000339  (-0.008419 -0.001403 -0.016307)
 94:   1481.95   0.001076    5.44  0.000227  (-0.001036 -0.009574  0.011571)
 95:   1482.40   0.001742    8.80  0.000367  ( 0.016245  0.009764  0.002726)
 96:   1507.07   0.001966    9.94  0.000407  (-0.001442 -0.001087  0.020097)
 97:   1509.97   0.001598    8.08  0.000330  ( 0.000281  0.000336 -0.018170)
 98:   1511.31   0.000993    5.02  0.000205  (-0.013320 -0.005195  0.000803)
 99:   1609.44   0.000927    4.68  0.000180  (-0.008844 -0.004114 -0.009194)
100:   1610.87   0.001350    6.82  0.000262  ( 0.010517  0.011645 -0.003914)
101:   1612.16   0.001126    5.69  0.000218  ( 0.006950 -0.002541  0.012771)
102:   1645.67   0.009171   46.35  0.001739  ( 0.036735  0.015834  0.011785)
103:   1648.58   0.009407   47.54  0.001781  (-0.020551  0.032987 -0.016439)
104:   1651.23   0.008768   44.31  0.001657  (-0.003180 -0.040568  0.001063)
105:   1742.21   0.184065  930.19  0.032970  (-0.106439 -0.015548 -0.146283)
106:   1744.80   0.105554  533.43  0.018879  (-0.042206 -0.116311  0.059742)
107:   1760.43   0.036981  186.89  0.006555  ( 0.059170  0.051400 -0.020307)
108:   3185.57   0.001182    5.97  0.000116  ( 0.009587  0.004736  0.001189)
109:   3186.22   0.001230    6.22  0.000120  ( 0.007051 -0.008069  0.002373)
110:   3186.78   0.000863    4.36  0.000084  (-0.001246  0.009106  0.000081)
111:   3198.19   0.000210    1.06  0.000021  (-0.003864 -0.000171 -0.002361)
112:   3198.86   0.000413    2.09  0.000040  (-0.003911 -0.004868  0.001130)
113:   3200.21   0.000125    0.63  0.000012  (-0.001917  0.001777 -0.002304)
114:   3211.45   0.000870    4.40  0.000085  (-0.007735 -0.003866  0.003123)
115:   3212.90   0.001375    6.95  0.000134  ( 0.009895 -0.004564 -0.003849)
116:   3213.25   0.000710    3.59  0.000069  ( 0.004388 -0.006751 -0.002018)
117:   3218.19   0.000502    2.54  0.000049  (-0.002459 -0.001594  0.006330)
118:   3218.86   0.000496    2.50  0.000048  ( 0.002115 -0.004309 -0.005001)
119:   3219.32   0.000726    3.67  0.000070  (-0.007737  0.001215  0.003008)

--------------------------
THERMOCHEMISTRY AT 298.15K
--------------------------

Temperature         ... 298.15 K
Pressure            ... 1.00 atm
Total Mass          ... 418.31 AMU

Throughout the following assumptions are being made:
  (1) The electronic state is orbitally nondegenerate
      but the spin degeneracy is treated
  (2) There are no thermally accessible electronically excited states
  (3) Hindered rotations indicated by low frequency modes are not
      treated as such but are treated as vibrations and this may
      cause some error
  (4) All equations used are the standard statistical mechanics
      equations for an ideal gas
  (5) All vibrations are strictly harmonic

freq.      28.52  E(vib)   ...       0.55
freq.      30.20  E(vib)   ...       0.55
freq.      37.20  E(vib)   ...       0.54
freq.      41.61  E(vib)   ...       0.54
freq.      42.14  E(vib)   ...       0.53
freq.      52.92  E(vib)   ...       0.52
freq.     111.84  E(vib)   ...       0.45
freq.     113.86  E(vib)   ...       0.44
freq.     118.22  E(vib)   ...       0.44
freq.     159.51  E(vib)   ...       0.39
freq.     164.16  E(vib)   ...       0.39
freq.     171.52  E(vib)   ...       0.38
freq.     183.97  E(vib)   ...       0.37
freq.     193.35  E(vib)   ...       0.36
freq.     203.58  E(vib)   ...       0.35
freq.     205.05  E(vib)   ...       0.35
freq.     224.63  E(vib)   ...       0.33
freq.     240.41  E(vib)   ...       0.31
freq.     269.29  E(vib)   ...       0.29
freq.     293.75  E(vib)   ...       0.27
freq.     298.77  E(vib)   ...       0.26
freq.     363.54  E(vib)   ...       0.22
freq.     382.68  E(vib)   ...       0.20
freq.     388.09  E(vib)   ...       0.20
freq.     430.04  E(vib)   ...       0.18
freq.     433.39  E(vib)   ...       0.17
freq.     436.27  E(vib)   ...       0.17
freq.     453.98  E(vib)   ...       0.16
freq.     459.73  E(vib)   ...       0.16
freq.     462.47  E(vib)   ...       0.16
freq.     467.49  E(vib)   ...       0.16
freq.     477.11  E(vib)   ...       0.15
freq.     481.72  E(vib)   ...       0.15
freq.     543.14  E(vib)   ...       0.12
freq.     544.38  E(vib)   ...       0.12
freq.     546.90  E(vib)   ...       0.12
freq.     671.07  E(vib)   ...       0.08
freq.     674.46  E(vib)   ...       0.08
freq.     678.16  E(vib)   ...       0.08
freq.     701.84  E(vib)   ...       0.07
freq.     705.98  E(vib)   ...       0.07
freq.     712.32  E(vib)   ...       0.07
freq.     722.67  E(vib)   ...       0.07
freq.     729.35  E(vib)   ...       0.06
freq.     731.40  E(vib)   ...       0.06
freq.     780.27  E(vib)   ...       0.05
freq.     784.09  E(vib)   ...       0.05
freq.     787.58  E(vib)   ...       0.05
freq.     838.95  E(vib)   ...       0.04
freq.     843.99  E(vib)   ...       0.04
freq.     847.89  E(vib)   ...       0.04
freq.     860.03  E(vib)   ...       0.04
freq.     863.23  E(vib)   ...       0.04
freq.     867.24  E(vib)   ...       0.04
freq.     932.11  E(vib)   ...       0.03
freq.     940.56  E(vib)   ...       0.03
freq.     945.72  E(vib)   ...       0.03
freq.     994.87  E(vib)   ...       0.02
freq.    1014.52  E(vib)   ...       0.02
freq.    1023.17  E(vib)   ...       0.02
freq.    1038.11  E(vib)   ...       0.02
freq.    1040.43  E(vib)   ...       0.02
freq.    1043.72  E(vib)   ...       0.02
freq.    1050.15  E(vib)   ...       0.02
freq.    1053.05  E(vib)   ...       0.02
freq.    1054.32  E(vib)   ...       0.02
freq.    1072.51  E(vib)   ...       0.02
freq.    1075.47  E(vib)   ...       0.02
freq.    1077.18  E(vib)   ...       0.02
freq.    1120.20  E(vib)   ...       0.01
freq.    1122.05  E(vib)   ...       0.01
freq.    1123.62  E(vib)   ...       0.01
freq.    1179.03  E(vib)   ...       0.01
freq.    1179.65  E(vib)   ...       0.01
freq.    1179.83  E(vib)   ...       0.01
freq.    1186.31  E(vib)   ...       0.01
freq.    1188.02  E(vib)   ...       0.01
freq.    1190.08  E(vib)   ...       0.01
freq.    1288.83  E(vib)   ...       0.01
freq.    1289.69  E(vib)   ...       0.01
freq.    1291.52  E(vib)   ...       0.01
freq.    1310.98  E(vib)   ...       0.01
freq.    1317.49  E(vib)   ...       0.01
freq.    1325.50  E(vib)   ...       0.01
freq.    1337.88  E(vib)   ...       0.01
freq.    1340.59  E(vib)   ...       0.01
freq.    1344.00  E(vib)   ...       0.01
freq.    1479.23  E(vib)   ...       0.00
freq.    1481.95  E(vib)   ...       0.00
freq.    1482.40  E(vib)   ...       0.00
freq.    1507.07  E(vib)   ...       0.00
freq.    1509.97  E(vib)   ...       0.00
freq.    1511.31  E(vib)   ...       0.00
freq.    1609.44  E(vib)   ...       0.00
freq.    1610.87  E(vib)   ...       0.00
freq.    1612.16  E(vib)   ...       0.00
freq.    1645.67  E(vib)   ...       0.00
freq.    1648.58  E(vib)   ...       0.00
freq.    1651.23  E(vib)   ...       0.00
freq.    1742.21  E(vib)   ...       0.00
freq.    1744.80  E(vib)   ...       0.00
freq.    1760.43  E(vib)   ...       0.00
freq.    3185.57  E(vib)   ...       0.00
freq.    3186.22  E(vib)   ...       0.00
freq.    3186.78  E(vib)   ...       0.00
freq.    3198.19  E(vib)   ...       0.00
freq.    3198.86  E(vib)   ...       0.00
freq.    3200.21  E(vib)   ...       0.00
freq.    3211.45  E(vib)   ...       0.00
freq.    3212.90  E(vib)   ...       0.00
freq.    3213.25  E(vib)   ...       0.00
freq.    3218.19  E(vib)   ...       0.00
freq.    3218.86  E(vib)   ...       0.00
freq.    3219.32  E(vib)   ...       0.00

------------
INNER ENERGY
------------

The inner energy is: U= E(el) + E(ZPE) + E(vib) + E(rot) + E(trans)
    E(el)   - is the total energy from the electronic structure calculation
              = E(kin-el) + E(nuc-el) + E(el-el) + E(nuc-nuc)
    E(ZPE)  - the the zero temperature vibrational energy from the frequency calculation
    E(vib)  - the the finite temperature correction to E(ZPE) due to population
              of excited vibrational states
    E(rot)  - is the rotational thermal energy
    E(trans)- is the translational thermal energy

Summary of contributions to the inner energy U:
Electronic energy                ...  -2353.31190254 Eh
Zero point energy                ...      0.28243403 Eh     177.23 kcal/mol
Thermal vibrational correction   ...      0.02010945 Eh      12.62 kcal/mol
Thermal rotational correction    ...      0.00141627 Eh       0.89 kcal/mol
Thermal translational correction ...      0.00141627 Eh       0.89 kcal/mol
-----------------------------------------------------------------------
Total thermal energy                  -2353.00652651 Eh

Summary of corrections to the electronic energy:
(perhaps to be used in another calculation)
Total thermal correction                  0.02294199 Eh      14.40 kcal/mol
Non-thermal (ZPE) correction              0.28243403 Eh     177.23 kcal/mol
-----------------------------------------------------------------------

Rotational constants in cm-1:     0.007312     0.005782     0.004533

                             ****ORCA TERMINATED NORMALLY****
TOTAL RUN TIME: 0 days 2 hours 41 minutes 7 seconds 404 msec
